# vtk DataFile Version 2.0
Optical Flow
ASCII

DATASET UNSTRUCTURED_GRID
POINTS 36 double
  0.000000  0.000000  0.000000
  1.000000  0.000000  0.000000
  2.000000  0.000000  0.000000
  3.000000  0.000000  0.000000
  4.000000  0.000000  0.000000
  5.000000  0.000000  0.000000
  0.000000  1.000000  0.000000
  1.000000  1.000000  0.000000
  2.000000  1.000000  0.000000
  3.000000  1.000000  0.000000
  4.000000  1.000000  0.000000
  5.000000  1.000000  0.000000
  0.000000  2.000000  0.000000
  1.000000  2.000000  0.000000
  2.000000  2.000000  0.000000
  3.000000  2.000000  0.000000
  4.000000  2.000000  0.000000
  5.000000  2.000000  0.000000
  0.000000  3.000000  0.000000
  1.000000  3.000000  0.000000
  2.000000  3.000000  0.000000
  3.000000  3.000000  0.000000
  4.000000  3.000000  0.000000
  5.000000  3.000000  0.000000
  0.000000  4.000000  0.000000
  1.000000  4.000000  0.000000
  2.000000  4.000000  0.000000
  3.000000  4.000000  0.000000
  4.000000  4.000000  0.000000
  5.000000  4.000000  0.000000
  0.000000  5.000000  0.000000
  1.000000  5.000000  0.000000
  2.000000  5.000000  0.000000
  3.000000  5.000000  0.000000
  4.000000  5.000000  0.000000
  5.000000  5.000000  0.000000

CELLS  25  125
  4  0  1  6  7
  4  1  2  7  8
  4  2  3  8  9
  4  3  4  9  10
  4  4  5  10  11
  4  6  7  12  13
  4  7  8  13  14
  4  8  9  14  15
  4  9  10  15  16
  4  10  11  16  17
  4  12  13  18  19
  4  13  14  19  20
  4  14  15  20  21
  4  15  16  21  22
  4  16  17  22  23
  4  18  19  24  25
  4  19  20  25  26
  4  20  21  26  27
  4  21  22  27  28
  4  22  23  28  29
  4  24  25  30  31
  4  25  26  31  32
  4  26  27  32  33
  4  27  28  33  34
  4  28  29  34  35

CELL_TYPES 25
8
8
8
8
8
8
8
8
8
8
8
8
8
8
8
8
8
8
8
8
8
8
8
8
8

POINT_DATA 36
SCALARS scalar float
LOOKUP_TABLE default
  0.080000
  0.130000
  0.210000
  0.240000
  0.180000
  0.100000
  0.110000
  0.260000
  0.500000
  0.590000
  0.390000
  0.180000
  0.150000
  0.400000
  0.840000
  0.990000
  0.640000
  0.260000
  0.150000
  0.400000
  0.840000
  0.990000
  0.640000
  0.260000
  0.110000
  0.260000
  0.500000
  0.590000
  0.390000
  0.180000
  0.080000
  0.130000
  0.210000
  0.240000
  0.180000
  0.100000
