# vtk DataFile Version 2.0
Exemplo 3 - 2D Unstructured Grid of Linear Triangles
ASCII

DATASET UNSTRUCTURED_GRID
POINTS 8 float
0.0  0.0  0.0
1.0  0.0  0.0
2.0  0.0  0.0
0.0  1.0  0.0
1.0  1.0  0.0
2.0  1.0  0.0
0.0  2.0  0.0
1.0  2.0  0.0

CELLS 3 15
4  0  1  3  4
4  1  2  4  5
4  3  4  6  7


CELL_TYPES 3
8
8
8

POINT_DATA 8
SCALARS pressure float
LOOKUP_TABLE default
0.0
1.0
2.0
1.0
2.0
3.0
2.0
3.0

VECTORS velocity float
1.0  1.0  0.0
2.0  1.0  0.0
3.0  1.0  0.0
1.0  2.0  0.0
2.0  2.0  0.0
3.0  2.0  0.0
1.0  3.0  0.0
2.0  3.0  0.0